{
  "flashs": [
    {
      "id": 1,
      "question": "What is the capital of France?",
      "answer": "Paris"
    },
    {
      "id": 2,
      "question": "What does 'www' stand for in a website browser?",
      "answer": "World Wide Web"
    },
    {
      "id": 3,
      "question": "How many continents are there on Earth?",
      "answer": "Seven"
    },
    {
      "id": 4,
      "question": "What is the largest mammal in the world?",
      "answer": "Blue Whale"
    },
    {
      "id": 5,
      "question": "What element does 'O' represent on the periodic table?",
      "answer": "Oxygen"
    },
    {
      "id": 6,
      "question": "Who wrote the play 'Romeo and Juliet'?",
      "answer": "William Shakespeare"
    },
    {
      "id": 7,
      "question": "What is the speed of light?",
      "answer": "299,792,458 meters per second"
    },
    {
      "id": 8,
      "question": "What planet is known as the Red Planet?",
      "answer": "Mars"
    },
    {
      "id": 9,
      "question": "In what year did the Titanic sink?",
      "answer": "1912"
    },
    {
      "id": 10,
      "question": "What is the hardest natural substance on Earth?",
      "answer": "Diamond"
    },
    {
      "id": 11,
      "question": "Who proposed the theory of relativity?",
      "answer": "Albert Einstein"
    },
    {
      "id": 12,
      "question": "What is the chemical formula for water?",
      "answer": "H2O"
    },
    {
      "id": 13,
      "question": "What is the largest ocean on Earth?",
      "answer": "Pacific Ocean"
    },
    {
      "id": 14,
      "question": "Who painted the Mona Lisa?",
      "answer": "Leonardo da Vinci"
    },
    {
      "id": 15,
      "question": "What gas do plants absorb during photosynthesis?",
      "answer": "Carbon Dioxide"
    },
    {
      "id": 16,
      "question": "Who is known as the Father of Computers?",
      "answer": "Charles Babbage"
    },
    {
      "id": 17,
      "question": "What is the currency of Japan?",
      "answer": "Japanese Yen"
    },
    {
      "id": 18,
      "question": "What is the tallest mountain in the world?",
      "answer": "Mount Everest"
    },
    {
      "id": 19,
      "question": "What organ pumps blood throughout the human body?",
      "answer": "Heart"
    },
    {
      "id": 20,
      "question": "Who wrote 'To Kill a Mockingbird'?",
      "answer": "Harper Lee"
    },
    {
      "id": 21,
      "question": "Which planet is closest to the sun?",
      "answer": "Mercury"
    },
    {
      "id": 22,
      "question": "What language has the most native speakers?",
      "answer": "Mandarin Chinese"
    },
    {
      "id": 23,
      "question": "What is the formula for calculating the area of a circle?",
      "answer": "πr²"
    },
    {
      "id": 24,
      "question": "Who discovered penicillin?",
      "answer": "Alexander Fleming"
    },
    {
      "id": 25,
      "question": "What is the capital of Australia?",
      "answer": "Canberra"
    },
    {
      "id": 26,
      "question": "What is the main ingredient in sushi?",
      "answer": "Rice"
    },
    {
      "id": 27,
      "question": "Which element has the atomic number 1?",
      "answer": "Hydrogen"
    },
    {
      "id": 28,
      "question": "Who wrote '1984' and 'Animal Farm'?",
      "answer": "George Orwell"
    },
    {
      "id": 29,
      "question": "What is the largest planet in our Solar System?",
      "answer": "Jupiter"
    },
    {
      "id": 30,
      "question": "What is the process by which plants make their food?",
      "answer": "Photosynthesis"
    },
    {
      "id": 31,
      "question": "Who was the first woman to win a Nobel Prize?",
      "answer": "Marie Curie"
    },
    {
      "id": 32,
      "question": "What is the smallest bone in the human body?",
      "answer": "Stapes (in the ear)"
    },
    {
      "id": 33,
      "question": "Which country is known as the Land of the Rising Sun?",
      "answer": "Japan"
    },
    {
      "id": 34,
      "question": "What is the pH of pure water?",
      "answer": "7 (neutral)"
    },
    {
      "id": 35,
      "question": "Who wrote the 'Iliad' and the 'Odyssey'?",
      "answer": "Homer"
    },
    {
      "id": 36,
      "question": "What is the most abundant gas in the Earth's atmosphere?",
      "answer": "Nitrogen"
    },
    {
      "id": 37,
      "question": "What country has the largest population?",
      "answer": "China"
    },
    {
      "id": 38,
      "question": "Who was the first person to walk on the moon?",
      "answer": "Neil Armstrong"
    },
    {
      "id": 39,
      "question": "What is the capital of Egypt?",
      "answer": "Cairo"
    },
    {
      "id": 40,
      "question": "What is the common name for dihydrogen monoxide?",
      "answer": "Water"
    },
    {
      "id": 41,
      "question": "Who is known for the theory of evolution?",
      "answer": "Charles Darwin"
    },
    {
      "id": 42,
      "question": "What is the main language spoken in Brazil?",
      "answer": "Portuguese"
    },
    {
      "id": 43,
      "question": "What is the name of the longest river in the world?",
      "answer": "Nile River"
    },
    {
      "id": 44,
      "question": "Who is the author of 'Pride and Prejudice'?",
      "answer": "Jane Austen"
    },
    {
      "id": 45,
      "question": "What is the freezing point of water?",
      "answer": "0°C (32°F)"
    },
    {
      "id": 46,
      "question": "What is the capital of Canada?",
      "answer": "Ottawa"
    },
    {
      "id": 47,
      "question": "Which organ is responsible for detoxifying chemicals and metabolizing drugs?",
      "answer": "Liver"
    },
    {
      "id": 48,
      "question": "What is the square root of 81?",
      "answer": "9"
    },
    {
      "id": 49,
      "question": "Who was the ancient Greek god of the sea?",
      "answer": "Poseidon"
    },
    {
      "id": 50,
      "question": "What is the primary source of energy for the Earth?",
      "answer": "The Sun"
    },
    {
      "question": "salam",
      "answer": "salam",
      "id": 51
    }
  ]
}